{
    "queries": [
        {
            "query": "What is the atomic number of carbon",
            "answer": {
                "function": "no_such_function",
                "arguments": {}
            }
        },
        {
            "query": "Show me a picture of a cat with blue eyes",
            "answer": {
                "function": "no_such_function",
                "arguments": {}
            }
        },
        {
            "query": "How many days are in June 2025",
            "answer": {
                "function": "no_such_function",
                "arguments": {}
            }
        },
        {
            "query": "Can you write a poem about the beauty of space",
            "answer": {
                "function": "no_such_function",
                "arguments": {}
            }
        },
        {
            "query": "What is the average airspeed velocity of an unladen swallow in mph",
            "answer": {
                "function": "no_such_function",
                "arguments": {}
            }
        },
        {
            "query": "Provide a recipe for vegan chocolate chip cookies with gluten-free flour",
            "answer": {
                "function": "no_such_function",
                "arguments": {}
            }
        },
        {
            "query": "What is the current interest rate for 30-year fixed mortgages in California",
            "answer": {
                "function": "no_such_function",
                "arguments": {}
            }
        },
        {
            "query": "Can you summarize the plot of The Great Gatsby in under 50 words",
            "answer": {
                "function": "no_such_function",
                "arguments": {}
            }
        },
        {
            "query": "How many square miles are in the Grand Canyon National Park",
            "answer": {
                "function": "no_such_function",
                "arguments": {}
            }
        },
        {
            "query": "What is the formula for calculating the area of a circle with a diameter of 10cm",
            "answer": {
                "function": "no_such_function",
                "arguments": {}
            }
        },
        {
            "query": "Can you generate a password that is at least 12 characters long and contains both uppercase and lowercase letters, as well as numbers",
            "answer": {
                "function": "no_such_function",
                "arguments": {}
            }
        },
        {
            "query": "What are the top 5 best-selling books of all time according to Amazon",
            "answer": {
                "function": "no_such_function",
                "arguments": {}
            }
        },
        {
            "query": "How many different species of birds can be found in the rainforests of South America",
            "answer": {
                "function": "no_such_function",
                "arguments": {}
            }
        },
        {
            "query": "What is the boiling point of water at 5000 feet above sea level",
            "answer": {
                "function": "no_such_function",
                "arguments": {}
            }
        },
        {
            "query": "Can you provide a list of all US Presidents in chronological order with their corresponding party affiliations",
            "answer": {
                "function": "no_such_function",
                "arguments": {}
            }
        },
        {
            "query": "What is the definition of artificial intelligence and its applications in healthcare",
            "answer": {
                "function": "no_such_function",
                "arguments": {}
            }
        },
        {
            "query": "How many calories are burned per hour while hiking a 5-mile trail at a moderate pace",
            "answer": {
                "function": "no_such_function",
                "arguments": {}
            }
        },
        {
            "query": "What is the chemical composition of diamond and how it's used in industry",
            "answer": {
                "function": "no_such_function",
                "arguments": {}
            }
        },
        {
            "query": "Can you translate 'hello world' into Spanish, French, German, Italian, Portuguese, Chinese, Japanese, Korean, Arabic, Hebrew, Russian, Hindi, and Swahili",
            "answer": {
                "function": "no_such_function",
                "arguments": {}
            }
        },
        {
            "query": "What is the average lifespan of a domesticated cat in years",
            "answer": {
                "function": "no_such_function",
                "arguments": {}
            }
        },
        {
            "query": "Provide a mathematical proof for the Pythagorean theorem using Euclidean geometry",
            "answer": {
                "function": "no_such_function",
                "arguments": {}
            }
        },
        {
            "query": "What is the world record for most hamburgers eaten in one sitting",
            "answer": {
                "function": "no_such_function",
                "arguments": {}
            }
        },
        {
            "query": "Can you provide a list of all the US state capitals that start with the letter 'M'",
            "answer": {
                "function": "no_such_function",
                "arguments": {}
            }
        },
        {
            "query": "How many different species of trees are found in the Redwood National and State Parks",
            "answer": {
                "function": "no_such_function",
                "arguments": {}
            }
        },
        {
            "query": "What is the formula for calculating the volume of a sphere with a diameter of 15cm",
            "answer": {
                "function": "no_such_function",
                "arguments": {}
            }
        },
        {
            "query": "Can you summarize the plot of The Shawshank Redemption in under 50 words",
            "answer": {
                "function": "no_such_function",
                "arguments": {}
            }
        },
        {
            "query": "What is the average salary for a software engineer in San Francisco, CA with 5 years experience",
            "answer": {
                "function": "no_such_function",
                "arguments": {}
            }
        },
        {
            "query": "How many different species of fish can be found in the Amazon River basin",
            "answer": {
                "function": "no_such_function",
                "arguments": {}
            }
        },
        {
            "query": "What is the boiling point of water at 7500 feet above sea level",
            "answer": {
                "function": "no_such_function",
                "arguments": {}
            }
        },
        {
            "query": "Can you provide a list of all the Nobel Prize winners in Physics since 1901",
            "answer": {
                "function": "no_such_function",
                "arguments": {}
            }
        },
        {
            "query": "What is the definition of renewable energy and its sources",
            "answer": {
                "function": "no_such_function",
                "arguments": {}
            }
        },
        {
            "query": "How many calories are burned per hour while swimming laps at a moderate pace",
            "answer": {
                "function": "no_such_function",
                "arguments": {}
            }
        },
        {
            "query": "What is the chemical composition of gold and how it's used in jewelry making",
            "answer": {
                "function": "no_such_function",
                "arguments": {}
            }
        },
        {
            "query": "Can you translate 'hello world' into Welsh, Scottish Gaelic, Irish, and Yiddish",
            "answer": {
                "function": "no_such_function",
                "arguments": {}
            }
        },
        {
            "query": "What is the average lifespan of a domesticated dog in years",
            "answer": {
                "function": "no_such_function",
                "arguments": {}
            }
        },
        {
            "query": "Provide a mathematical proof for the formula for calculating the area of an ellipse using calculus",
            "answer": {
                "function": "no_such_function",
                "arguments": {}
            }
        },
        {
            "query": "What is the world record for most push-ups done in one hour",
            "answer": {
                "function": "no_such_function",
                "arguments": {}
            }
        },
        {
            "query": "Can you provide a list of all the US state capitals that start with the letter 'S'",
            "answer": {
                "function": "no_such_function",
                "arguments": {}
            }
        },
        {
            "query": "How many different species of mammals can be found in the Serengeti National Park",
            "answer": {
                "function": "no_such_function",
                "arguments": {}
            }
        },
        {
            "query": "What is the formula for calculating the volume of a cone with a height of 20cm and radius of 15cm",
            "answer": {
                "function": "no_such_function",
                "arguments": {}
            }
        },
        {
            "query": "Can you summarize the plot of The Lord of the Rings in under 50 words",
            "answer": {
                "function": "no_such_function",
                "arguments": {}
            }
        },
        {
            "query": "What is the average salary for a data scientist in New York, NY with 3 years experience",
            "answer": {
                "function": "no_such_function",
                "arguments": {}
            }
        },
        {
            "query": "How many different species of reptiles can be found in the Everglades National Park",
            "answer": {
                "function": "no_such_function",
                "arguments": {}
            }
        },
        {
            "query": "What is the boiling point of water at 10000 feet above sea level",
            "answer": {
                "function": "no_such_function",
                "arguments": {}
            }
        },
        {
            "query": "Can you provide a list of all the US state capitals that start with the letter 'T'",
            "answer": {
                "function": "no_such_function",
                "arguments": {}
            }
        },
        {
            "query": "How many different species of birds can be found in the Galapagos Islands",
            "answer": {
                "function": "no_such_function",
                "arguments": {}
            }
        },
        {
            "query": "What is the formula for calculating the volume of a cylinder with a height of 25cm and radius of 18cm",
            "answer": {
                "function": "no_such_function",
                "arguments": {}
            }
        },
        {
            "query": "Can you summarize the plot of The Hunger Games in under 50 words",
            "answer": {
                "function": "no_such_function",
                "arguments": {}
            }
        },
        {
            "query": "What is the average salary for a mechanical engineer in Chicago, IL with 2 years experience",
            "answer": {
                "function": "no_such_function",
                "arguments": {}
            }
        },
        {
            "query": "How many different species of fish can be found in the Great Barrier Reef",
            "answer": {
                "function": "no_such_function",
                "arguments": {}
            }
        },
        {
            "query": "What is the boiling point of water at 5000 feet above sea level",
            "answer": {
                "function": "no_such_function",
                "arguments": {}
            }
        },
        {
            "query": "Can you provide a list of all the US state capitals that start with the letter 'W'",
            "answer": {
                "function": "no_such_function",
                "arguments": {}
            }
        },
        {
            "query": "How many different species of mammals can be found in the Amazon rainforest",
            "answer": {
                "function": "no_such_function",
                "arguments": {}
            }
        },
        {
            "query": "What is the formula for calculating the volume of a sphere with a radius of 10cm",
            "answer": {
                "function": "no_such_function",
                "arguments": {}
            }
        },
        {
            "query": "Can you summarize the plot of The Princess Bride in under 50 words",
            "answer": {
                "function": "no_such_function",
                "arguments": {}
            }
        },
        {
            "query": "What is the average salary for a software engineer in Boston, MA with 4 years experience",
            "answer": {
                "function": "no_such_function",
                "arguments": {}
            }
        }
    ]
}